60
Energy:    -52.80887852
    H      6.31030645      0.84038861     -2.04873064
    C      5.50968543      1.35165860     -1.50396008
    C      4.21448866      0.81843215     -1.51664445
    C      5.78745087      2.53252475     -0.80238505
    H      4.03090622     -0.10488024     -2.07599560
    C      3.17653449      1.47141927     -0.81902352
    H      6.80450802      2.93803243     -0.80290191
    C      4.76517224      3.20428904     -0.09659744
    C      1.80152223      0.96084135     -0.79449863
    C      3.46996196      2.66084413     -0.11588356
    C      5.06706241      4.47693898      0.66159677
    N      0.77081198      1.58121425     -0.22424268
    N      1.42978557     -0.24781283     -1.37682922
    H      2.65366538      3.15333695      0.42072032
    H      5.78804962      4.29150446      1.47821509
    H      5.51634981      5.23753382     -0.00007333
    H      4.15594897      4.90511106      1.10588268
    C     -0.32035581      0.75180101     -0.43599378
    H      2.04777603     -0.90906115     -1.83661989
    C      0.07098394     -0.41316892     -1.16414986
    C     -1.65967921      0.91678282     -0.04333255
    C     -0.83966059     -1.42045094     -1.51266738
    H     -1.95665928      1.80859384      0.51486627
    C     -2.58383211     -0.10456515     -0.33309062
    H     -0.53626054     -2.31190283     -2.06870868
    C     -2.16724241     -1.23322369     -1.11507907
    C     -3.98250176     -0.01822498      0.16536056
    H     -2.91581759     -1.97383817     -1.41226486
    C     -4.64489649     -1.18004844      0.65750229
    C     -4.65851287      1.22000068      0.15390741
    H     -4.09933247     -2.12828148      0.65751721
    C     -5.93859689     -1.13795807      1.18514959
    H     -4.17424724      2.11001791     -0.25888446
    C     -5.95224457      1.25402546      0.68252692
    H     -6.42999020     -2.03958762      1.55897544
    C     -6.59913981      0.10265591      1.22692266
    N     -6.88438144      2.27385576      0.82484004
    N     -7.85202570      0.43697573      1.73325973
    H     -6.76481624      3.24230257      0.54284721
    C     -8.01187884      1.72698383      1.42641271
    C     -9.24407933      2.53331782      1.68046279
    H     -9.99105774      1.88628553      2.15969494
    H     -9.67137530      2.92882048      0.74197635
    H     -9.03890924      3.38797417      2.34876494
    C      4.97980031     -3.01783941     -0.58959752
    C      3.50385301     -2.64658529     -0.57430174
    O      3.06515028     -2.51858338     -1.93267335
    C      2.62159700     -3.67172652      0.17169006
    C      2.95415377     -3.79623545      1.65083763
    O      1.24104833     -3.30110662      0.05432198
    H      5.54103340     -2.31464097     -1.21413925
    H      5.12727947     -4.01255334     -1.02219328
    H      5.40931046     -2.99972419      0.41492767
    H      3.38290757     -1.65358447     -0.12690643
    H      2.73450512     -3.38655750     -2.22320166
    H      2.71082859     -4.65429949     -0.30534461
    H      2.88978770     -2.82225117      2.14858318
    H      3.95676882     -4.20317744      1.80420412
    H      2.23401059     -4.45369320      2.15009419
    H      1.19448896     -2.32890043      0.02485433
