60
Energy:    -52.91063436
    H     -0.02469392     -1.67510944     -6.47469112
    C     -0.43635464     -0.93784697     -5.77744977
    C     -0.30313027     -1.14075178     -4.39791836
    C     -1.09236511      0.19800254     -6.27070645
    H      0.21360239     -2.03962313     -4.04564055
    C     -0.83196878     -0.19698989     -3.49234709
    H     -1.18998719      0.34216484     -7.35169172
    C     -1.63009271      1.15678622     -5.38411755
    C     -0.72249868     -0.35408978     -2.03794484
    C     -1.49081986      0.94350068     -4.00267397
    C     -2.33556380      2.38272235     -5.91799500
    N     -1.27566322      0.46062551     -1.14202855
    N     -0.01490062     -1.39175148     -1.43735746
    H     -1.89359149      1.66574136     -3.28645026
    H     -1.64465734      3.01500048     -6.50446465
    H     -3.16657276      2.10349956     -6.58853936
    H     -2.74570406      2.99685615     -5.10222932
    C     -0.91920643     -0.05644197      0.09449551
    H      0.51760988     -2.11199641     -1.91511138
    C     -0.12074300     -1.23003488     -0.06565701
    C     -1.23011043      0.41016834      1.38321678
    C      0.37693664     -1.95306492      1.02745668
    H     -1.84036814      1.30920102      1.50336574
    C     -0.69846979     -0.26565575      2.49757311
    H      0.98941345     -2.85019815      0.90118664
    C      0.05176028     -1.47272104      2.29990868
    C     -0.91069745      0.26387140      3.87116163
    H      0.38038372     -2.03874015      3.17673421
    C      0.14290602      0.22281733      4.82982648
    C     -2.16039573      0.81227995      4.22869100
    H      1.10316364     -0.20589928      4.52834123
    C      0.00789385      0.75615867      6.11480226
    H     -2.98861745      0.81223152      3.51378556
    C     -2.28799471      1.34299442      5.51570252
    H      0.82775188      0.71630612      6.83618537
    C     -1.21724151      1.35304119      6.46115408
    N     -3.34641646      1.94290463      6.18580487
    N     -1.60495374      1.99285591      7.63511590
    H     -4.27818719      2.10596124      5.81577671
    C     -2.89664180      2.28185080      7.45664209
    C     -3.79702326      2.89891505      8.47721984
    H     -3.21724542      3.07244284      9.39375503
    H     -4.64892152      2.23907095      8.71936877
    H     -4.20212474      3.86537977      8.12937109
    C      4.73820165     -0.25405739     -1.81531725
    C      3.91698218     -1.52431936     -1.64644719
    O      3.20262591     -1.42860019     -0.40767725
    C      2.92993697     -1.77506856     -2.80776567
    C      3.61339446     -1.99032229     -4.14960235
    O      2.12949621     -2.93087873     -2.52413487
    H      5.34413212     -0.07280912     -0.92115824
    H      4.08746333      0.61754593     -1.93857431
    H      5.40973895     -0.32077763     -2.67465656
    H      4.59081188     -2.38150656     -1.53679026
    H      2.33817040     -1.02120038     -0.59167201
    H      2.22937213     -0.93604304     -2.88662673
    H      4.33377885     -2.81395496     -4.09290535
    H      4.13520462     -1.09001564     -4.48355157
    H      2.87775086     -2.26680510     -4.91281906
    H      2.67544093     -3.55362283     -2.01192872
