60
Energy:    -52.90308904
    H     -2.35094702      2.45707124     -5.75883586
    C     -2.66469117      2.21207330     -4.73868556
    C     -1.80851958      1.47605562     -3.90966555
    C     -3.91735714      2.63475595     -4.27395624
    H     -0.83728730      1.15973477     -4.30429319
    C     -2.20527045      1.15440520     -2.59454360
    H     -4.57631630      3.20812012     -4.93415950
    C     -4.33681933      2.32502874     -2.96148623
    C     -1.35207677      0.38798369     -1.67988048
    C     -3.47040709      1.58653275     -2.13854790
    C     -5.68764642      2.78373119     -2.46099424
    N     -1.71160813     -0.01359815     -0.46255258
    N     -0.05508613     -0.00374660     -2.00004398
    H     -3.76143992      1.32961160     -1.11574567
    H     -5.74923348      3.88679015     -2.43771376
    H     -6.49824095      2.42834402     -3.12039356
    H     -5.88610980      2.41260004     -1.44427257
    C     -0.61213694     -0.69336325      0.03993574
    H      0.44610082      0.21698001     -2.85483074
    C      0.45009368     -0.70133688     -0.91511166
    C     -0.44101079     -1.32254013      1.28494229
    C      1.68139924     -1.32183960     -0.66169897
    H     -1.25490652     -1.31417396      2.01474619
    C      0.80383174     -1.90626245      1.58628151
    H      2.49312229     -1.32453037     -1.39451440
    C      1.82771171     -1.94478621      0.58173747
    C      1.05990349     -2.48012301      2.93435284
    H      2.75640165     -2.48225092      0.79588856
    C      2.32330192     -2.29624701      3.56745475
    C      0.04730298     -3.20905176      3.59285726
    H      3.09191999     -1.72613298      3.03737715
    C      2.59246421     -2.77042538      4.85452527
    H     -0.91223257     -3.39090667      3.09964196
    C      0.32417810     -3.68073319      4.87940100
    H      3.56742809     -2.61876629      5.32419957
    C      1.57024425     -3.45132771      5.53908598
    N     -0.41988961     -4.41690010      5.79242209
    N      1.54863078     -3.97997780      6.82669304
    H     -1.36652850     -4.76037281      5.65973330
    C      0.36778983     -4.59646451      6.92358376
    C     -0.09830010     -5.40006204      8.09406451
    H      0.69270732     -5.39666515      8.85602692
    H     -0.30909202     -6.44640408      7.81034615
    H     -1.01576997     -4.97547066      8.53805909
    C      2.77041340      3.97426678     -1.52980071
    C      2.83081240      2.66158223     -2.29771686
    O      2.85014114      1.59133124     -1.34471778
    C      1.65511626      2.47220159     -3.28141780
    C      1.61881693      3.51174762     -4.39137294
    O      1.73293777      1.17467600     -3.88756973
    H      3.56654324      4.01085917     -0.77856089
    H      1.82220816      4.06749100     -0.99076353
    H      2.88806200      4.83412458     -2.19363907
    H      3.78296267      2.59853028     -2.83648891
    H      1.92943708      1.32621881     -1.17403849
    H      0.70631248      2.49171478     -2.73336249
    H      2.56456356      3.52519178     -4.94447470
    H      1.42825881      4.51324172     -3.99759994
    H      0.83335505      3.26972722     -5.11565862
    H      2.67445097      0.94173647     -3.97424770
