51
Energy:    -44.63160020
    H     -0.32394334     -2.26435183     -0.10921385
    O     -0.40244112     -2.15426578      0.90489717
    S      0.22546214     -0.70074928      1.30245633
    C     -0.42396144      0.34438582     -0.04205534
    O     -0.37378507     -0.34011138      2.59557237
    O      1.69932665     -0.73015814      1.14143609
    C     -0.65299176     -0.27903959     -1.28800071
    C     -0.63550434      1.73557305      0.06836063
    N     -0.49875857     -1.61038237     -1.63968880
    C     -1.10663746      0.46962393     -2.40369669
    C     -1.14917979      2.43474583     -1.06639042
    C     -0.35405010      2.52211896      1.29835496
    C     -0.84142153     -1.70083942     -2.92676014
    N     -1.21658653     -0.46281898     -3.42623247
    C     -1.34503124      1.84497582     -2.31639504
    H     -1.35456356      3.50163523     -0.94316901
    C     -1.34504696      3.41615055      1.79643804
    C      0.90033904      2.42357984      1.93168260
    C     -0.82736977     -2.93224920     -3.71689841
    H     -1.45674486     -0.26198403     -4.39242256
    H     -1.66701782      2.44043513     -3.17584827
    H     -2.31409339      3.45393527      1.28915180
    C     -1.13432192      4.19749645      2.93633608
    H      1.68309357      1.77316508      1.53183889
    C      1.09085565      3.19030205      3.08275058
    C     -1.47518851     -3.01982206     -4.96767053
    C     -0.14484981     -4.05883807     -3.20930604
    H     -1.90306572      4.87902895      3.30862284
    C      0.10090818      4.08344302      3.59705419
    N      2.15635600      3.30759735      3.96363129
    H     -2.04666191     -2.17525741     -5.36865145
    C     -1.39117338     -4.20234176     -5.71181004
    H      0.35389012     -3.97685942     -2.23950762
    C     -0.09718916     -5.26542544     -3.92565889
    N      0.56809437      4.72390574      4.73931973
    H      3.02007789      2.77216315      3.93162008
    C      1.79108661      4.22296674      4.93915738
    H     -1.89397289     -4.26885617     -6.68043509
    C     -0.66626726     -5.29638780     -5.21885935
    C      0.54366121     -6.49541279     -3.32703135
    C      2.69933528      4.58137196      6.07063122
    H     -0.54065964     -6.18800739     -5.84343220
    H      1.10353247     -7.06649628     -4.08533790
    H      1.23553215     -6.23318177     -2.51185990
    H     -0.22332281     -7.17020521     -2.90898868
    H      3.62538094      5.06380127      5.71009357
    H      2.17405262      5.28382863      6.73163558
    H      2.98840645      3.69154110      6.65533191
    O      0.78907627      0.66730537      4.95178544
    H      0.27608601      0.23919403      4.25949816
    H      0.78124802      1.58977128      4.70766382
