51
Energy:    -58.82284190
    H      4.53714019     -1.13698026      0.73333528
    O      3.89343679     -1.77858913      1.10589669
    S      2.78670903     -0.84950427      1.96444954
    C      1.45554654     -0.66923928      0.75251722
    O      3.43795335      0.45348926      2.20899547
    O      2.34812441     -1.72530267      3.06466165
    C      1.43519584     -1.58588701     -0.31227938
    C      0.48739482      0.37405049      0.91232554
    H      2.19400015     -2.36487088     -0.39098868
    C      0.40364220     -1.43246192     -1.24009876
    C     -0.49992590      0.52001079     -0.07953855
    C      0.47163337      1.31116518      2.07167909
    N      0.06216245     -2.12220512     -2.39012133
    C     -0.58182723     -0.40880086     -1.12637526
    H     -1.22485811      1.33415308     -0.00208132
    C      0.50197074      2.71321659      1.82767603
    C      0.36906673      0.81653463      3.38584677
    H      0.53430228     -2.94382020     -2.75696959
    C     -1.07655762     -1.51857938     -2.91509616
    N     -1.51425969     -0.51924974     -2.14120911
    H      0.58035335      3.05510611      0.79121198
    C      0.43710257      3.64719045      2.86421400
    H      0.30077258     -0.25702108      3.58010192
    C      0.36150515      1.76059100      4.41725667
    C     -1.70330587     -1.94432329     -4.17041953
    H      0.46278644      4.72186316      2.66594422
    C      0.33782508      3.16789795      4.18211334
    N      0.37117640      1.63736241      5.79902047
    C     -1.16317156     -2.97163335     -4.97318100
    C     -2.89008296     -1.29794372     -4.58169022
    N      0.21483904      3.86212073      5.38170876
    H      0.43866028      0.76856269      6.32311394
    C      0.35760435      2.91890878      6.33127671
    H     -0.24659493     -3.49570460     -4.68497689
    C     -1.80483979     -3.33638416     -6.16377233
    H     -3.29035620     -0.50587439     -3.94290034
    C     -3.54163420     -1.65768026     -5.77185349
    C      0.49112438      3.17117417      7.79753166
    H     -1.38424836     -4.13316328     -6.78289017
    C     -2.98130756     -2.68448536     -6.56286697
    C     -4.81397328     -0.95832083     -6.19308816
    H      1.45656987      2.80109132      8.18579277
    H      0.43801902      4.25432757      7.97257319
    H     -0.31374427      2.67829072      8.36971900
    H     -3.47093976     -2.97621549     -7.49782571
    H     -4.58854505     -0.10572427     -6.85945235
    H     -5.48345852     -1.63776538     -6.74581739
    H     -5.36222636     -0.56107128     -5.32477637
    O      5.46998344      0.16405967      0.27360880
    H      6.16957667      0.61178661     -0.21199381
    H      5.12967974      0.83584809      0.85969217
