51
Energy:    -51.90068813
    H      2.63319813      1.13384367      3.78147978
    O      3.11758518      1.16247518      2.92744967
    S      2.77159264     -0.29835707      2.17152885
    C      1.41216336      0.17897830      1.07728392
    O      2.28460029     -1.20867305      3.22787977
    O      3.97566473     -0.59379094      1.37605714
    C      1.26749137      1.54922015      0.80168223
    C      0.54858316     -0.82838739      0.53806819
    H      1.95127946      2.27958648      1.23503415
    C      0.21290958      1.90183832     -0.04212383
    C     -0.53220533     -0.41581935     -0.26292173
    C      0.73455915     -2.28746834      0.78102645
    N     -0.23609540      3.11646825     -0.52995032
    C     -0.67500115      0.93706770     -0.60140657
    H     -1.22966859     -1.16178721     -0.65206300
    C     -0.34310249     -3.04016223      1.32719794
    C      1.93876769     -2.92163396      0.42056598
    H      0.18941793      4.02335964     -0.35956427
    C     -1.33821688      2.85833746     -1.33948273
    N     -1.58737771      1.54812276     -1.44146474
    H     -1.26204293     -2.50839966      1.59189975
    C     -0.25503654     -4.41908380      1.53151556
    H      2.75550950     -2.35982328     -0.04011023
    C      2.03394031     -4.29188595      0.68221015
    C     -2.11895211      3.91437244     -1.99151848
    H     -1.08812841     -4.98746358      1.95317226
    C      0.94271260     -5.06547117      1.17935599
    N      3.07576892     -5.19900620      0.55463276
    C     -1.84064994      5.28486354     -1.80220642
    C     -3.18467457      3.53638195     -2.83812868
    N      1.28326120     -6.41353068      1.23285569
    H      4.02815166     -4.98245045      0.27159261
    C      2.60209039     -6.43723427      0.96483015
    H     -1.02170926      5.61446319     -1.15527115
    C     -2.62090423      6.25078814     -2.45065217
    H     -3.38060983      2.46878117     -2.97035180
    C     -3.97089053      4.49664043     -3.49401443
    C      3.49407531     -7.62978220      1.08128329
    H     -2.40212371      7.31156562     -2.30250621
    C     -3.67868924      5.86249308     -3.28650074
    C     -5.10396864      4.07302748     -4.40069798
    H      4.29634796     -7.46454639      1.82212654
    H      2.89059606     -8.48769411      1.40759750
    H      3.97102545     -7.87634034      0.11698373
    H     -4.28365295      6.62746440     -3.78432781
    H     -6.05618389      4.02915877     -3.84110736
    H     -5.24428450      4.78533306     -5.23033478
    H     -4.92690957      3.07354696     -4.82736270
    O      1.62061834      1.18790282      5.08960111
    H      1.66396280      0.31347617      5.48859897
    H      0.68520525      1.35923450      5.01055799
