51
Energy:    -59.10522571
    H     -0.71565292      4.50869267      1.25716860
    O      0.15307909      4.14377668      1.53458348
    S     -0.19737837      2.67408074      2.27101502
    C      0.08450070      1.51631310      0.90962336
    O     -1.63180853      2.71530143      2.62090785
    O      0.85384206      2.51494495      3.29055286
    C      0.85810159      1.97758551     -0.16890269
    C     -0.47352051      0.19873048      0.97206022
    H      1.26323972      2.98983764     -0.17083292
    C      1.06475243      1.07368896     -1.21233810
    C     -0.28204204     -0.65532240     -0.12967962
    C     -1.24498308     -0.31339971      2.14043567
    N      1.75277417      1.16027281     -2.40985024
    C      0.52842011     -0.24695926     -1.19816296
    H     -0.73291216     -1.65083186     -0.12410681
    C     -2.55636880     -0.82617746      1.93179130
    C     -0.66153527     -0.34289863      3.42142531
    H      2.29126250      1.95886227     -2.73362514
    C      1.61788085     -0.06428267     -3.05708565
    N      0.93103198     -0.94530364     -2.32143310
    H     -2.97141689     -0.78574372      0.92016380
    C     -3.31383370     -1.36899854      2.97223265
    H      0.36104575      0.00799852      3.58304289
    C     -1.45138781     -0.83715516      4.46399400
    C      2.17073751     -0.33267325     -4.38833469
    H     -4.32074962     -1.75867183      2.80144902
    C     -2.74547028     -1.40207976      4.25765268
    N     -1.24773545     -0.92141240      5.83365689
    C      2.84042572      0.65574700     -5.14071765
    C      2.02366316     -1.62991496     -4.92770754
    N     -3.24929534     -1.91787437      5.44770152
    H     -0.44388866     -0.56374249      6.34350350
    C     -2.37816231     -1.50570182      6.38735626
    H      2.97473467      1.67070561     -4.75387773
    C      3.34786623      0.34249979     -6.40826225
    H      1.50224658     -2.37934258     -4.32593683
    C      2.53048028     -1.95421450     -6.19592842
    C     -2.56151193     -1.63755720      7.86396253
    H      3.86685229      1.11026768     -6.98813028
    C      3.19247421     -0.94885329     -6.93417625
    C      2.36831791     -3.34958923     -6.75451746
    H     -2.58065978     -0.65062256      8.35932741
    H     -3.51921613     -2.14085413      8.05416210
    H     -1.75098252     -2.22961964      8.32292891
    H      3.59012797     -1.17973932     -7.92793534
    H      1.45293286     -3.41971486     -7.37009249
    H      3.21845913     -3.62708534     -7.39920406
    H      2.28272639     -4.09800508     -5.95145967
    O     -2.31228661      4.87415769      0.94852679
    H     -2.74238917      4.22299837      1.51129081
    H     -3.03678797      5.36787976      0.57178244
