64
Energy:    -75.57380011
    H     -3.11312134      1.72869535      0.25987632
    O     -3.32608752      0.80365180      0.51317621
    S     -2.31262160      0.40661018      1.78296036
    C     -0.89884652     -0.30569179      0.96794201
    O     -3.03210122     -0.68295359      2.47306025
    O     -1.93002674      1.66472790      2.45120956
    C     -0.88652478     -1.67140529      0.64827999
    C      0.17821565      0.49508416      0.56862262
    N     -1.74552737     -2.71534445      0.88971438
    C      0.19944788     -2.23481934     -0.08716477
    H      0.15795440      1.56259519      0.80250441
    C      1.28451227     -0.05713544     -0.13252023
    H     -2.59326372     -2.62737611      1.44809746
    C     -1.16620243     -3.85798543      0.34662672
    N     -0.01300893     -3.58965696     -0.27669870
    C      1.26716133     -1.42016939     -0.49692989
    C      2.44457057      0.80907907     -0.47258224
    C     -1.77283262     -5.18744548      0.45923567
    H      2.09612178     -1.85985169     -1.05791211
    C      2.91450513      1.77719232      0.46026890
    C      3.08100602      0.66813305     -1.72298143
    C     -3.03183492     -5.38848767      1.06606700
    C     -1.07079918     -6.29716853     -0.06025042
    H      2.40433849      1.86611516      1.42421429
    C      4.03350542      2.57530449      0.20617382
    H      2.70372800     -0.04452076     -2.46321574
    C      4.16597296      1.50928798     -1.99197793
    H     -3.60292419     -4.54990520      1.47756973
    C     -3.56635180     -6.67894060      1.14584129
    H     -0.09733699     -6.11574687     -0.52700361
    C     -1.59814420     -7.59534273      0.01452924
    H      4.38159134      3.31252311      0.93498923
    C      4.70706254      2.40435732     -1.01581917
    N      4.94522799      1.71192652     -3.12197273
    H     -4.54194733     -6.83182594      1.61506984
    C     -2.85817355     -7.77245091      0.62573193
    C     -0.83070762     -8.77144263     -0.54548517
    N      5.88247720      2.98624054     -1.48171004
    H      4.84218540      1.24012787     -4.01615742
    C      5.89220175      2.67880232     -2.80802228
    H     -3.28816029     -8.77825576      0.69305953
    H     -1.50917870     -9.56761389     -0.89234869
    H     -0.17471540     -9.21244112      0.22649445
    H     -0.19102243     -8.46923097     -1.38873363
    C      6.78832090      3.27439119     -3.84350351
    H      7.48964107      3.95912111     -3.34641101
    H      6.21667425      3.84454149     -4.59592211
    H      7.36916360      2.50013187     -4.37407514
    C     -1.64279128      5.94912628      2.34761159
    C     -1.42986005      4.91462261      1.25173456
    O     -0.54453968      3.90804137      1.75870600
    C     -2.74163947      4.26508198      0.75865675
    C     -3.70123388      5.25149128      0.11046754
    O     -2.44564647      3.23706248     -0.19665108
    H     -0.67837186      6.30162696      2.72861216
    H     -2.17823360      5.51295597      3.19696545
    H     -2.20141249      6.81374029      1.98119249
    H     -0.90319342      5.37882756      0.41032086
    H     -1.08707123      3.20980726      2.16520401
    H     -3.24399820      3.76395869      1.59381252
    H     -3.21676714      5.78011671     -0.71801670
    H     -4.06731894      5.98777168      0.83035149
    H     -4.56285457      4.72386482     -0.31301104
    H     -1.64919226      3.50647263     -0.68787390
