64
Energy:    -75.51207814
    H     -1.76538573     -3.06231214      0.51277827
    O     -0.81770332     -3.31636814      0.56351887
    S     -0.12793582     -2.36744199      1.75552012
    C      0.46050933     -0.94791720      0.85603655
    O      1.04901286     -3.15001343      2.18378607
    O     -1.20596832     -1.96870366      2.67999276
    C      1.73135099     -0.96956591      0.26273915
    C     -0.35978271      0.17055755      0.66395273
    N      2.76619341     -1.87237005      0.25718612
    C      2.17690407      0.12454930     -0.53853818
    H     -1.35684356      0.17748881      1.11173910
    C      0.08267418      1.28400840     -0.10083423
    H      2.75927859     -2.73781658      0.79490491
    C      3.79662327     -1.31144973     -0.49099346
    N      3.45442257     -0.12629603     -1.00935567
    C      1.34052143      1.23456847     -0.73827677
    C     -0.78607398      2.48527576     -0.21889515
    C      5.09480071     -1.96689421     -0.67340198
    H      1.69010852      2.06940157     -1.35149742
    C     -1.52277848      2.95102056      0.90744461
    C     -0.87754507      3.16497322     -1.45099027
    C      5.36345077     -3.25478031     -0.16063933
    C      6.10293188     -1.28323382     -1.38788222
    H     -1.43376969      2.40685775      1.85260717
    C     -2.30904451      4.10560563      0.85816932
    H     -0.34747729      2.79291581     -2.33346545
    C     -1.71035989      4.28761782     -1.50704912
    H      4.60383362     -3.81267210      0.39652899
    C      6.61974642     -3.83559711     -0.36487960
    H      5.87030771     -0.28665083     -1.77661006
    C      7.36605431     -1.85695568     -1.59837204
    H     -2.86667750      4.44979251      1.73361654
    C     -2.36383325      4.82024311     -0.35115299
    N     -2.10734426      5.11692082     -2.54620692
    H      6.82487968     -4.83343667      0.03207451
    C      7.61214788     -3.14522427     -1.07644103
    C      8.43352011     -1.10865271     -2.36410400
    N     -2.97959117      6.03209602     -0.65031301
    H     -1.83297487      5.03294556     -3.52111594
    C     -2.94964687      6.08323112     -2.01053562
    H      8.59183003     -3.61148157     -1.23101147
    H      9.11323877     -1.79972692     -2.88843689
    H      9.04974138     -0.49874207     -1.67924025
    H      7.99200393     -0.42656142     -3.10667517
    C     -3.70679004      7.03891120     -2.87273444
    H     -4.24586292      7.74313624     -2.22367858
    H     -4.44183884      6.51686098     -3.50924982
    H     -3.03401946      7.61338909     -3.53282299
    C     -5.27073399     -3.50987267      1.06922181
    C     -4.13080602     -2.61587519      1.53593019
    O     -3.30496007     -2.32269134      0.40189329
    C     -4.61096320     -1.30333714      2.19356759
    C     -5.41331271     -1.52076082      3.46751273
    O     -3.48194334     -0.47834830      2.51256064
    H     -4.87603248     -4.37328230      0.52309223
    H     -5.92974191     -2.97330766      0.37918446
    H     -5.86195056     -3.87956950      1.91045021
    H     -3.49393502     -3.17211977      2.23294403
    H     -3.63770200     -1.50456999     -0.00685145
    H     -5.21113469     -0.72860105      1.47911213
    H     -4.84133568     -2.10965900      4.19317120
    H     -6.35696972     -2.03355263      3.26523571
    H     -5.63693059     -0.56118378      3.94638741
    H     -2.73838688     -1.06477159      2.73939211
