51
Energy:    -57.98509600
    H      4.25165167     -1.71166749      1.47483065
    O      4.01400246     -0.84831325      1.87901293
    S      2.61852052     -1.09967369      2.76589233
    C      1.32366753     -0.73469546      1.59947233
    O      2.64357707     -0.01394259      3.76669108
    O      2.58075817     -2.52797694      3.13238905
    C      0.87605184      0.58466913      1.43691071
    C      0.79242583     -1.73802167      0.77978961
    N      1.16521652      1.77367754      2.06031089
    C     -0.09467757      0.90406957      0.44025692
    H      1.15607546     -2.76225958      0.89549035
    C     -0.20136190     -1.44318580     -0.19278314
    H      1.79210846      1.85061098      2.85985747
    C      0.36529894      2.74986623      1.47432668
    N     -0.37591575      2.25920744      0.47420433
    C     -0.60947159     -0.10658587     -0.38747293
    C     -0.79691444     -2.54710100     -0.99177838
    C      0.35786681      4.14564621      1.92141506
    H     -1.35426809      0.14594912     -1.14688142
    C     -1.09599896     -3.79661038     -0.37731296
    C     -1.06728670     -2.35286657     -2.36202866
    C      1.22271536      4.61325297      2.93488923
    C     -0.54402517      5.04579135      1.31270199
    H     -0.87793987     -3.92177424      0.68765288
    C     -1.70523608     -4.84340287     -1.07499815
    H     -0.80474907     -1.41088333     -2.85386459
    C     -1.62588853     -3.42459126     -3.06660242
    H      1.93478642      3.94230611      3.42629855
    C      1.17578143      5.95660306      3.32289534
    H     -1.20341971      4.65986601      0.52869851
    C     -0.59886932      6.39495131      1.69440938
    H     -1.92946494     -5.79573709     -0.58652303
    C     -2.02767438     -4.64020165     -2.42811005
    N     -1.92324121     -3.61942365     -4.40779992
    H      1.84734017      6.31650872      4.10699532
    C      0.27487749      6.83997631      2.70985473
    C     -1.57272983      7.34326891      1.03253671
    N     -2.71135259     -5.46060103     -3.32073032
    H     -1.76735299     -2.95528903     -5.16106088
    C     -2.47258110     -4.88932369     -4.53330914
    H      0.24866083      7.89030389      3.02160729
    H     -1.18530119      8.37489028      1.01903147
    H     -2.53294801      7.36038853      1.57883880
    H     -1.78785656      7.04008226     -0.00351123
    C     -2.74793822     -5.50420832     -5.86600278
    H     -3.23972519     -6.47428035     -5.70816799
    H     -1.81779567     -5.67206430     -6.43577837
    H     -3.41107208     -4.86925064     -6.47873782
    O      4.46483769     -3.28312998      1.00355520
    H      4.09235822     -3.87529026      1.66408926
    H      4.88447780     -3.86953392      0.37854912
