51
Energy:    -57.97407842
    H     -0.78937375      4.32819435     -1.95580918
    O     -0.32500675      4.36657862     -1.09087512
    S      1.13324366      3.57264793     -1.29159089
    C      0.74925548      1.89475143     -0.83595353
    O      1.98776997      4.14393423     -0.23118779
    O      1.47850698      3.64096912     -2.72404384
    C      0.82018905      1.49792253      0.50755094
    C      0.30025547      0.97616187     -1.79269446
    N      1.21578892      2.11992403      1.66625706
    C      0.42556189      0.18270650      0.89758580
    H      0.22811846      1.29314812     -2.83624943
    C     -0.06195514     -0.34867571     -1.42656761
    H      1.60509271      3.06113550      1.69365273
    C      1.09205613      1.19040258      2.69429892
    N      0.58606118      0.02883456      2.26404451
    C     -0.03847586     -0.72591140     -0.06711958
    C     -0.46089077     -1.31861247     -2.48097647
    C      1.47827537      1.47930492      4.07832029
    H     -0.33669237     -1.73202291      0.23948040
    C      0.22767412     -1.34649704     -3.72732868
    C     -1.52376444     -2.21413463     -2.24274626
    C      1.93543457      2.75373591      4.47904476
    C      1.38509593      0.44574863      5.03606816
    H      1.04972980     -0.64218317     -3.88712364
    C     -0.07653906     -2.27561089     -4.72628353
    H     -2.08595613     -2.17486314     -1.30436507
    C     -1.85867057     -3.10392324     -3.26898605
    H      2.01822377      3.57723109      3.76231633
    C      2.28978163      2.97646341      5.81402477
    H      1.02684819     -0.53306676      4.70143404
    C      1.73779971      0.65882691      6.37738792
    H      0.46400129     -2.28375784     -5.67685007
    C     -1.09900271     -3.20755974     -4.47686734
    N     -2.88100967     -4.03001661     -3.41852813
    H      2.64228487      3.96448598      6.12206512
    C      2.19243153      1.94072923      6.75507347
    C      1.63330830     -0.46074580      7.38804339
    N     -1.53780618     -4.28449100     -5.24166312
    H     -3.61738699     -4.22677164     -2.74635710
    C     -2.71469694     -4.63909072     -4.65608290
    H      2.47165535      2.12809683      7.79814223
    H      1.42639107     -0.07368754      8.39893268
    H      2.58000211     -1.02793879      7.44115603
    H      0.83721037     -1.17181850      7.11934154
    C     -3.73825741     -5.56489386     -5.22633679
    H     -3.35470381     -5.96873043     -6.17375890
    H     -4.68990220     -5.04362479     -5.42791990
    H     -3.95060077     -6.40717622     -4.54528413
    O     -1.29688459      4.19676895     -3.52490722
    H     -0.53583145      4.16365419     -4.11261593
    H     -2.04464032      4.22344745     -4.11714841
