47
Energy:    -36.25101618
    H      3.51216626     -6.15335564     -4.00442547
    C      3.35628572     -5.07777693     -3.87027000
    C      2.58975564     -4.61924195     -2.79128747
    C      3.92238191     -4.17261081     -4.77802294
    H      2.16023404     -5.35309503     -2.10132163
    C      2.38228906     -3.23535726     -2.61174138
    H      4.51793748     -4.54616579     -5.61743479
    C      3.72878688     -2.78271630     -4.61936853
    C      1.59066355     -2.69539535     -1.50101181
    C      2.95847115     -2.33373335     -3.53387234
    C      4.34208615     -1.80747649     -5.59835030
    N      1.29467913     -1.40813416     -1.33436893
    N      1.05925209     -3.49128757     -0.48992356
    H      2.78871906     -1.26416446     -3.37882519
    H      5.44552614     -1.86170448     -5.57482316
    H      4.02918082     -2.03182736     -6.63272351
    H      4.04963505     -0.77165748     -5.36943910
    C      0.54235112     -1.35159641     -0.17066018
    H      1.18242362     -4.49359492     -0.38610755
    C      0.37892526     -2.65820704      0.38303075
    C     -0.02900288     -0.24041085      0.47277611
    C     -0.34117713     -2.88732653      1.56384056
    H      0.09834793      0.75874832      0.04783763
    C     -0.71114084     -0.43524845      1.68846362
    H     -0.46284992     -3.88881838      1.98589483
    C     -0.90405520     -1.76775284      2.18458770
    C     -1.22982453      0.72848586      2.45584533
    H     -1.51491181     -1.91339764      3.08059875
    C     -1.13215451      0.75540590      3.87730229
    C     -1.82023240      1.81383914      1.77485207
    H     -0.66899655     -0.09730173      4.38243631
    C     -1.55646861      1.84940866      4.63688080
    H     -1.93705300      1.78606893      0.68736747
    C     -2.24283229      2.90391145      2.54133082
    H     -1.47246159      1.85221750      5.72641462
    C     -2.09675606      2.95793395      3.96127282
    N     -2.85174200      4.10763137      2.21046328
    N     -2.54736868      4.17901975      4.45500122
    H     -3.11005799      4.41508254      1.27748331
    C     -3.04165148      4.81689837      3.39075295
    C     -3.72962020      6.14320718      3.41601128
    H     -3.75886400      6.50067483      4.45411180
    H     -4.76535217      6.07079447      3.03947882
    H     -3.19485154      6.88927319      2.80235992
    O     -3.54355290      4.90630862     -0.32326898
    H     -2.97339375      5.30961327     -0.98505739
    H     -4.29372603      4.59483189     -0.82409082
