47
Energy:    -36.24041846
    H     -0.50664974      8.08809135      0.74884326
    C      0.08181282      7.16672383      0.81176943
    C     -0.49106301      5.95166499      0.41494289
    C      1.39861513      7.21162441      1.28907605
    H     -1.52286215      5.95117606      0.04823824
    C      0.25914755      4.75947953      0.49427725
    H      1.83228580      8.16868932      1.59696972
    C      2.16950768      6.03166146      1.37778408
    C     -0.28565272      3.45808299      0.09239454
    C      1.58526201      4.81864210      0.97714082
    C      3.59071479      6.08224174      1.89085910
    N      0.34825599      2.29503356      0.22616209
    N     -1.54534261      3.30638346     -0.48058943
    H      2.15304258      3.88505206      1.03069333
    H      4.23091387      6.69244476      1.22838539
    H      3.63563212      6.53905309      2.89459055
    H      4.03100463      5.07569665      1.95299482
    C     -0.52321673      1.34127412     -0.27810988
    H     -2.19442669      4.05179791     -0.71214106
    C     -1.72986845      1.95665302     -0.73177655
    C     -0.36233202     -0.05079621     -0.38509267
    C     -2.78337434      1.21936122     -1.29023974
    H      0.56245196     -0.51943932     -0.03831000
    C     -1.38201102     -0.80841633     -0.99125807
    H     -3.70512785      1.69396666     -1.63814798
    C     -2.60285189     -0.16425563     -1.38308400
    C     -1.19949816     -2.26583507     -1.22536209
    H     -3.42302147     -0.77811992     -1.76738400
    C     -1.66056547     -2.86469500     -2.43349607
    C     -0.56478374     -3.06147406     -0.24841727
    H     -2.14830216     -2.22670444     -3.17637356
    C     -1.46413702     -4.21838367     -2.72122313
    H     -0.24313932     -2.62029425      0.69971049
    C     -0.37260267     -4.41447249     -0.54303514
    H     -1.82405805     -4.65966523     -3.65389479
    C     -0.78443290     -5.00680510     -1.77593008
    N      0.19857514     -5.46104099      0.16945085
    N     -0.41631303     -6.34849744     -1.82304096
    H      0.60300731     -5.40597983      1.09956261
    C      0.11748121     -6.59903302     -0.62465678
    C      0.58807011     -7.93415826     -0.14609574
    H      0.42008031     -8.66937955     -0.94454429
    H      0.03744028     -8.26023223      0.75403956
    H      1.66468344     -7.92094087      0.09862664
    O      1.27821268     -5.28016730      2.68698086
    H      2.16054122     -4.97861914      2.92418339
    H      0.78889458     -5.22738892      3.50452734
