47
Energy:    -36.25440448
    H     -0.60109901      6.95672071     -4.18066706
    C     -0.95919593      5.94269823     -3.97404903
    C     -0.38671820      5.20653891     -2.92888651
    C     -1.98312648      5.39189728     -4.75634728
    H      0.41259799      5.66577698     -2.33789071
    C     -0.84065799      3.89876125     -2.65672433
    H     -2.41984642      5.97899430     -5.57086234
    C     -2.45435124      4.08484888     -4.50330834
    C     -0.28127693      3.08013230     -1.57557241
    C     -1.87332055      3.35545581     -3.45275463
    C     -3.56060790      3.49299689     -5.34683748
    N     -0.61355699      1.81429747     -1.33129764
    N      0.67208167      3.55489418     -0.67899529
    H     -2.21413250      2.34070407     -3.22701337
    H     -4.49653111      4.07002086     -5.23654194
    H     -3.29577044      3.50788650     -6.41819662
    H     -3.77002781      2.45134015     -5.06057969
    C      0.14622605      1.44018651     -0.23303414
    H      1.05048296      4.49632739     -0.64605637
    C      0.96905181      2.52512764      0.19867584
    C      0.19084173      0.21159281      0.44796217
    C      1.83780835      2.41755971      1.29368553
    H     -0.44061908     -0.61696379      0.11650901
    C      1.01406540      0.09322276      1.58350667
    H      2.46509183      3.25079404      1.62255629
    C      1.86852843      1.18496811      1.95351750
    C      1.00153498     -1.15239667      2.39619371
    H      2.57069813      1.04772100      2.78135501
    C      1.06120055     -1.08527162      3.81842373
    C      0.92804212     -2.40840031      1.75793148
    H      1.11623123     -0.09974988      4.29012757
    C      0.99835427     -2.22474654      4.62557381
    H      0.92257803     -2.47363243      0.66579783
    C      0.86632448     -3.54339285      2.57176246
    H      1.04453604     -2.15327855      5.71502714
    C      0.87069289     -3.47689386      3.99866498
    N      0.79181970     -4.90126808      2.28925599
    N      0.74115898     -4.74866263      4.54975042
    H      0.76844471     -5.32357357      1.36577525
    C      0.75297793     -5.57793723      3.50285361
    C      0.72904426     -7.07021909      3.57739255
    H      0.70057711     -7.36570659      4.63482706
    H      1.62657958     -7.51462479      3.11188754
    H     -0.15955110     -7.48738050      3.07188819
    O      0.74224801     -6.01156573     -0.22093127
    H      1.50021589     -6.10356070     -0.80635558
    H     -0.00964546     -6.12223936     -0.79799934
