51
Energy:    -64.83207342
    H     -2.78296062      4.11643366     -5.71101183
    C     -2.16437705      3.25399153     -5.44642169
    C     -1.94590358      2.95125305     -4.09820258
    C     -1.59950097      2.46367124     -6.45661268
    H     -2.42779341      3.55205631     -3.32163859
    C     -1.14660973      1.83614062     -3.75651179
    H     -1.78258760      2.71514886     -7.50633707
    C     -0.79546436      1.34592486     -6.14050643
    C     -0.90770355      1.50688700     -2.36284544
    C     -0.58479326      1.04294115     -4.78628209
    C     -0.18365085      0.50762378     -7.23821155
    N     -0.60347751      0.27893552     -1.85952479
    N     -0.94419133      2.36327899     -1.30887846
    H      0.06478600      0.19853550     -4.53163944
    H      0.46479976      1.11980235     -7.88754906
    H     -0.96516916      0.06910408     -7.88069004
    H      0.42473806     -0.31419943     -6.83100944
    H     -0.59529390     -0.56979181     -2.42141441
    C     -0.45496423      0.33719485     -0.47122884
    H     -1.06731011      3.36877731     -1.39980639
    C     -0.67461658      1.69076341     -0.11402021
    C     -0.16030425     -0.62953790      0.49059510
    C     -0.59980649      2.11766243      1.21038822
    H      0.00905231     -1.67607059      0.21862326
    C     -0.08268466     -0.22892108      1.84355791
    H     -0.72033602      3.15876686      1.52925841
    C     -0.35389378      1.14886658      2.18988837
    C      0.28300944     -1.28652675      2.82485657
    S     -0.40939701      1.80286104      3.92875801
    C     -0.50579942     -1.52404904      3.98487327
    C      1.39451143     -2.10609760      2.53117484
    O     -1.73437578      1.28551915      4.41735768
    O      0.79950030      1.20305447      4.57255951
    O     -0.36599052      3.28883571      3.72128472
    H     -1.33410838     -0.84450704      4.20116233
    C     -0.20889491     -2.56302677      4.86723260
    H      2.02853632     -1.89913252      1.66220827
    C      1.69049429     -3.12874518      3.43615001
    H     -0.82078334     -2.73675977      5.75665904
    C      0.89863592     -3.38668074      4.59137102
    N      2.70180792     -4.08084449      3.49212883
    N      1.39686723     -4.48357262      5.28882909
    H      3.47853244     -4.17465388      2.84474191
    C      2.50259123     -4.82936477      4.64613537
    C      3.45773719     -5.89397338      5.07515018
    H      3.08623457     -6.34056908      6.00814968
    H      4.46655054     -5.48439063      5.26025177
    H      3.54901080     -6.69172911      4.31539961
    O     -1.28221737      5.03117173     -1.30030770
    H     -1.87350983      5.41375051     -0.64478752
    H     -0.61892619      5.70419168     -1.43330753
