51
Energy:    -64.74260056
    H      1.69906311      5.31136454      5.11944448
    C      2.01358498      4.83115198      4.18835270
    C      1.25613320      3.77649356      3.66773921
    C      3.16733976      5.27573960      3.52852791
    H      0.33534742      3.46874039      4.17140134
    C      1.66271751      3.15624385      2.46396245
    H      3.74679046      6.10342423      3.95026010
    C      3.59520318      4.67065924      2.32579533
    C      0.89012909      2.05953298      1.90887471
    C      2.82799866      3.61720212      1.80451775
    C      4.84621881      5.15195499      1.62913524
    N      0.83569485      1.68536223      0.60090561
    N      0.08205724      1.20826140      2.59293727
    H      3.17059430      3.11975326      0.89073995
    H      5.72454919      5.06591565      2.29096828
    H      4.75562382      6.21389700      1.34643272
    H      5.05222285      4.57191188      0.71674479
    H      1.28237636      2.20804643     -0.14969539
    C     -0.02189109      0.59463534      0.43454092
    H     -0.00506326      1.20099399      3.60625371
    C     -0.50988343      0.28396358      1.72811718
    C     -0.41651170     -0.13688948     -0.68601608
    C     -1.39880961     -0.76812473      1.93981843
    H     -0.04246505      0.10066885     -1.68678386
    C     -1.32157204     -1.20696360     -0.50481402
    H     -1.76986557     -1.07168458      2.92484274
    C     -1.84059713     -1.47806975      0.81765050
    C     -1.67302424     -1.98721186     -1.72255907
    S     -3.12398360     -2.76761348      1.19772041
    C     -3.02865727     -2.22249927     -2.08473848
    C     -0.62023550     -2.42144184     -2.55710218
    O     -4.38343382     -2.11499051      0.69791104
    O     -2.66341825     -3.96447614      0.42890291
    O     -3.04006632     -2.88271054      2.69196288
    H     -3.81564275     -1.90780361     -1.39461205
    C     -3.36224742     -2.88829624     -3.26440666
    H      0.42450990     -2.27954570     -2.25995319
    C     -0.97113973     -3.10509071     -3.72410023
    H     -4.40726499     -3.06510684     -3.53337931
    C     -2.32439828     -3.33170868     -4.10546825
    N     -0.22429974     -3.69593097     -4.73677975
    N     -2.38168052     -3.99738488     -5.32671676
    H      0.78811951     -3.76216244     -4.77957769
    C     -1.12047707     -4.25528826     -5.63993345
    C     -0.66532833     -5.05279099     -6.81746393
    H     -1.55092489     -5.38413624     -7.37771304
    H     -0.09294192     -5.94495986     -6.50740991
    H     -0.02506673     -4.45600709     -7.49265284
    O     -0.32978938      1.01990402      5.24374740
    H      0.19854168      0.53037091      5.88165304
    H     -1.22413623      0.92269625      5.56201515
