64
Energy:    -65.84857001
    H      0.01875318     -2.08751830     -1.42171890
    O     -0.02929259     -2.23230961     -0.41007218
    S     -0.20624019     -0.77227899      0.29846584
    C     -1.39705169      0.02496908     -0.82764849
    O     -0.80744654     -1.03059351      1.61495000
    O      1.05825269     -0.00532887      0.18931337
    C     -1.36672663     -0.37244214     -2.18213685
    C     -2.28192120      1.05546954     -0.44369699
    N     -0.57949412     -1.33589496     -2.79203000
    C     -2.22120823      0.23412853     -3.13764834
    C     -3.16386802      1.59345604     -1.43015801
    C     -2.35205403      1.61914036      0.93038947
    C     -0.92226748     -1.33919299     -4.08224260
    N     -1.91417621     -0.40295100     -4.33221061
    C     -3.12267401      1.24203305     -2.78052941
    H     -3.87653121      2.35401981     -1.09959343
    C     -3.62072083      1.75765030      1.56344046
    C     -1.18089534      2.06151917      1.57614042
    C     -0.33879313     -2.20675393     -5.10585468
    H     -2.29442484     -0.17234580     -5.24531861
    H     -3.76698811      1.73910427     -3.51175204
    H     -4.50718860      1.38739322      1.03912892
    C     -3.75543267      2.29792125      2.84571735
    H     -0.20783107      1.99988308      1.08120011
    C     -1.32458675      2.57700027      2.86561668
    C     -0.94151235     -2.37209210     -6.37122492
    C      0.85974086     -2.89301334     -4.81387816
    H     -4.73448344      2.39808455      3.32056248
    C     -2.59069227      2.71217069      3.51439305
    N     -0.40713342      3.05416916      3.79059736
    H     -1.89272508     -1.88452622     -6.61232831
    C     -0.31975807     -3.17165739     -7.33728493
    H      1.31681903     -2.75490085     -3.83002070
    C      1.46476718     -3.73679359     -5.75900463
    N     -2.43362563      3.26671674      4.77971306
    H      0.60375684      3.05910584      3.68193966
    C     -1.11564769      3.44093525      4.91815823
    H     -0.78813824     -3.29918572     -8.31699027
    C      0.89730681     -3.80606012     -7.05143137
    C      2.68733491     -4.54844863     -5.40059531
    C     -0.43753290      3.98972051      6.13166475
    H      1.41466982     -4.36453140     -7.83965681
    H      3.40235754     -4.58952279     -6.23825667
    H      3.20594102     -4.13036571     -4.52411976
    H      2.40738897     -5.58812548     -5.15754939
    H      0.08128328      4.93979816      5.91150975
    H     -1.19743407      4.17709538      6.90220668
    H      0.30882490      3.28315318      6.53284880
    C      3.14869284     -1.44754952      2.95743367
    C      3.30573274      0.06397585      2.87309198
    O      3.49235795      0.41380731      1.49584582
    C      2.10379486      0.83868171      3.45701850
    C      1.89482232      0.60309195      4.94523956
    O      2.28555770      2.24609625      3.24918304
    H      3.97712686     -1.94406212      2.44100816
    H      2.22758219     -1.77214640      2.46292681
    H      3.13665590     -1.79325196      3.99388094
    H      4.22755628      0.36326010      3.38447373
    H      2.61617475      0.59008177      1.11069351
    H      1.19045642      0.56999345      2.91425380
    H      2.80132841      0.84754098      5.51006732
    H      1.62084482     -0.43426117      5.15307325
    H      1.10039706      1.25369213      5.32697497
    H      3.24021850      2.43324570      3.29183086
