64
Energy:    -65.41191871
    H     -1.85988098     -0.82011230     -1.49775874
    O     -2.03770800     -0.86573382     -0.49128061
    S     -0.79411928     -0.13387715      0.27219756
    C     -0.52043494      1.31158948     -0.80367098
    O     -1.30813095      0.27060171      1.58882008
    O      0.42277744     -0.97501487      0.16866640
    C     -0.83626009      1.16408509     -2.17187817
    C      0.05166914      2.52604602     -0.36762483
    N     -1.38094897      0.07289812     -2.82957949
    C     -0.60456651      2.21977336     -3.08997912
    C      0.21035685      3.57997305     -1.31863535
    C      0.50269700      2.77671252      1.02682745
    C     -1.48993140      0.42406438     -4.11291814
    N     -1.03107155      1.71743449     -4.31180853
    C     -0.05915171      3.44105256     -2.68126672
    H      0.60718853      4.52930672     -0.94862291
    C      0.09772295      3.97269802      1.68642483
    C      1.36576402      1.86628822      1.66756835
    C     -2.01911573     -0.42947953     -5.17701999
    H     -0.95132078      2.18615318     -5.20929201
    H      0.15208854      4.25349970     -3.38284650
    H     -0.58697993      4.64854098      1.16466218
    C      0.50351517      4.27568190      2.98942423
    H      1.71736134      0.96733412      1.15387598
    C      1.74507953      2.16720918      2.97702752
    C     -2.38231853      0.09275529     -6.43683090
    C     -2.16679721     -1.81159354     -4.93077409
    H      0.18519772      5.19633397      3.48452500
    C      1.33769005      3.35902167      3.65217327
    N      2.52970734      1.49417787      3.90243990
    H     -2.31701252      1.16681513     -6.64368248
    C     -2.83532795     -0.76995774     -7.44165113
    H     -1.88035790     -2.20321630     -3.95069495
    C     -2.66752784     -2.67758201     -5.91597398
    N      1.87544771      3.40172010      4.93366441
    H      2.94752949      0.57587380      3.77645469
    C      2.56624561      2.26392256      5.05531980
    H     -3.11679554     -0.36384528     -8.41700474
    C     -2.92795701     -2.14779762     -7.19998377
    C     -2.92170535     -4.13450494     -5.60826899
    C      3.31166875      1.82980090      6.27576469
    H     -3.20770677     -2.82283150     -8.01663752
    H     -2.64728763     -4.77891556     -6.45918077
    H     -2.35177018     -4.46559330     -4.72650405
    H     -3.99136132     -4.30753725     -5.39787667
    H      4.39589233      1.74757143      6.08087105
    H      3.15439599      2.57655982      7.06564467
    H      2.95899905      0.84926556      6.63827062
    C      1.18854165     -1.63387196      4.93088546
    C      1.52520182     -1.68892182      3.44760752
    O      2.88986383     -1.28133100      3.28765336
    C      1.31396461     -3.08549021      2.82249187
    C     -0.13278183     -3.55411980      2.85833957
    O      1.74629428     -3.07616962      1.45499299
    H      1.45132021     -0.65377353      5.34304745
    H      1.76596593     -2.37726670      5.48971501
    H      0.12387269     -1.80408118      5.10804873
    H      0.92660817     -0.94449966      2.91061378
    H      3.44731812     -2.07764641      3.33496595
    H      1.94714617     -3.81988252      3.33310232
    H     -0.79063900     -2.82721335      2.36908507
    H     -0.47996961     -3.70757921      3.88316680
    H     -0.24244247     -4.49687986      2.31126370
    H      1.57428745     -2.18844136      1.09364388
