64
Energy:    -63.35223515
    H      0.07035251     -2.08511338     -1.39004699
    O      0.04629441     -2.22729805     -0.37717645
    S     -0.19006456     -0.77432546      0.32853672
    C     -1.43703883     -0.04154078     -0.78045011
    O     -0.75591511     -1.05548318      1.65596638
    O      1.03339350      0.05296635      0.19509153
    C     -1.40985356     -0.44339061     -2.13369497
    C     -2.36475870      0.94629752     -0.38566492
    N     -0.58668168     -1.37010001     -2.75300405
    C     -2.30877770      0.11618532     -3.07702905
    C     -3.28827058      1.43588381     -1.35921311
    C     -2.43950765      1.51235415      0.98719687
    C     -0.95031080     -1.39623733     -4.03723289
    N     -1.99086606     -0.51076869     -4.27410000
    C     -3.25241263      1.08051726     -2.70870443
    H     -4.03169452      2.16227243     -1.01965544
    C     -3.70271930      1.59170212      1.64099670
    C     -1.28081211      2.01447227      1.61138278
    C     -0.34220311     -2.23908051     -5.06713891
    H     -2.39708877     -0.30333409     -5.18156240
    H     -3.93235897      1.54205400     -3.43089818
    H     -4.57861210      1.17610226      1.13315170
    C     -3.84234411      2.13079806      2.92324258
    H     -0.31427062      1.99811512      1.10035539
    C     -1.42807165      2.52840352      2.90107510
    C     -0.95708833     -2.43964596     -6.32151472
    C      0.89316847     -2.86457394     -4.79272860
    H     -4.81708376      2.18524853      3.41412825
    C     -2.68830029      2.60461543      3.57056783
    N     -0.51979700      3.05419321      3.80858950
    H     -1.93490010     -2.00028231     -6.54845243
    C     -0.31312106     -3.21243325     -7.29478804
    H      1.35925376     -2.69964726     -3.81726220
    C      1.52294207     -3.68224130     -5.74461689
    N     -2.53751734      3.17214518      4.83088544
    H      0.48769201      3.10800174      3.68288935
    C     -1.22752132      3.41120293      4.94641389
    H     -0.79094204     -3.36732113     -8.26595376
    C      0.93811731     -3.78525604     -7.02701463
    C      2.78955681     -4.43149106     -5.40369917
    C     -0.55696716      3.99819194      6.14616554
    H      1.46899579     -4.32150021     -7.82166187
    H      3.49169091     -4.44153794     -6.25312707
    H      3.30160112     -3.98443258     -4.53772899
    H      2.56490330     -5.48244420     -5.15191098
    H     -0.08899746      4.97143303      5.91358836
    H     -1.31219571      4.15185334      6.92866923
    H      0.22964402      3.33083813      6.53746816
    C      3.28259383     -1.27587957      2.71436622
    C      3.38527248      0.24255937      2.69750582
    O      3.44167485      0.66759940      1.32996140
    C      2.21490074      0.94417485      3.42121827
    C      2.14229928      0.62679093      4.90714238
    O      2.33475401      2.36578295      3.27385951
    H      4.07829958     -1.71635065      2.10415266
    H      2.33270076     -1.60735235      2.28288743
    H      3.37055002     -1.67351173      3.72828455
    H      4.33810736      0.54794308      3.14436987
    H      2.53055842      0.83212933      1.03011350
    H      1.26687083      0.67120699      2.94403713
    H      3.08617155      0.87421483      5.40556546
    H      1.91924973     -0.42869449      5.08195493
    H      1.36411829      1.22903250      5.38865400
    H      3.28333694      2.58398617      3.24559676
