64
Energy:    -65.84853143
    H     -1.94134667     -0.03615396     -1.61531324
    O     -2.18237203     -0.05903453     -0.62128846
    S     -0.80721252      0.14745620      0.23388632
    C      0.02272961      1.44561201     -0.73964208
    O     -1.22091639      0.65103557      1.55167346
    O      0.03710548     -1.06692233      0.12673745
    C     -0.24422865      1.47996346     -2.12566058
    C      0.96102583      2.35612425     -0.20774768
    N     -1.10034270      0.68434597     -2.86997741
    C      0.39935124      2.42246979     -2.96741811
    C      1.53775993      3.32444482     -1.08529998
    C      1.38916179      2.36870754      1.21608457
    C     -1.00271737      1.10666220     -4.13262197
    N     -0.10505539      2.15876840     -4.23357510
    C      1.31674776      3.35005192     -2.46341314
    H      2.22248823      4.05288251     -0.64241771
    C      1.39577984      3.60063362      1.93146442
    C      1.83512961      1.18349879      1.83309263
    C     -1.73648379      0.54494993     -5.26706111
    H      0.18776870      2.60674879     -5.09676780
    H      1.84248885      4.06343804     -3.10496092
    H      1.02633267      4.49815490      1.42571512
    C      1.80555497      3.68214243      3.26552388
    H      1.87526369      0.24147912      1.27937140
    C      2.21908186      1.27224163      3.17242917
    C     -1.81700140      1.21653596     -6.50571284
    C     -2.37784897     -0.70297996     -5.11211690
    H      1.80525252      4.63335421      3.80334083
    C      2.22105876      2.50045918      3.90296509
    N      2.65918326      0.32419030      4.08484872
    H     -1.36384960      2.20462594     -6.64351208
    C     -2.48637488      0.61653341     -7.57860197
    H     -2.30639942     -1.21315381     -4.14744670
    C     -3.09407528     -1.28987722     -6.16751136
    N      2.66316662      2.29293454      5.20477159
    H      2.73160411     -0.67633486      3.91921469
    C      2.89823576      0.97948408      5.28335527
    H     -2.54833240      1.13825234     -8.53747455
    C     -3.07457049     -0.64683668     -7.42580164
    C     -3.86491938     -2.57232378     -5.96004277
    C      3.36902507      0.25556731      6.50315236
    H     -3.52680636     -1.14162662     -8.29270396
    H     -3.78702139     -3.23462472     -6.83748814
    H     -3.50166403     -3.12280874     -5.07858553
    H     -4.93694150     -2.36157950     -5.80280279
    H      4.36340648     -0.19927284      6.34627007
    H      3.44026699      0.97427145      7.33060806
    H      2.67162065     -0.54954334      6.79065873
    C     -1.53604923     -3.39756733      2.61784456
    C     -0.01678116     -3.47166316      2.67093265
    O      0.47003793     -3.55353531      1.32545053
    C      0.63058880     -2.27070064      3.39508398
    C      0.24570657     -2.16767636      4.86315267
    O      2.05929307     -2.36701506      3.31398738
    H     -1.93438863     -4.21627802      2.00910691
    H     -1.86485717     -2.46505411      2.14811119
    H     -1.97705979     -3.46814986      3.61504353
    H      0.28533170     -4.40723612      3.15494924
    H      0.63145412     -2.64709011      1.01015081
    H      0.36229837     -1.34005724      2.88234906
    H      0.48745659     -3.09412920      5.39586373
    H     -0.82038380     -1.96056131      4.98527834
    H      0.81170800     -1.36656013      5.35097349
    H      2.29553496     -3.31167379      3.31952465
