64
Energy:    -59.76445742
    H     -3.25956472     -0.65920910      3.49866748
    O     -2.99061651     -0.75461011      4.46565068
    S     -1.78676720      0.33467399      4.72384822
    C     -0.71105329     -0.03645342      3.32714530
    O     -1.12613857     -0.05630405      5.97957988
    O     -2.31148863      1.70292632      4.53246387
    C     -1.30125337     -0.31760537      2.08218890
    C      0.67468004      0.05159746      3.42101317
    N     -2.63327835     -0.49245072      1.75716496
    C     -0.46998409     -0.51554948      0.94984818
    H      1.12787503      0.28422402      4.38780435
    C      1.50796038     -0.15316375      2.27998437
    C     -2.64760471     -0.79503304      0.45560294
    N     -1.36067514     -0.82678019     -0.06677854
    C      0.92229595     -0.38910220      1.01395268
    C      2.98423210     -0.11960216      2.43330572
    C     -3.85120217     -1.06120928     -0.33133121
    H     -1.12515536     -0.97764637     -1.04327576
    H      1.55320853     -0.50896916      0.12836518
    C      3.59667825     -0.72407030      3.56869860
    C      3.78014121      0.51037909      1.45379907
    C     -5.10727455     -0.68941539      0.19127138
    C     -3.78410336     -1.68162428     -1.59934737
    H      2.95724498     -1.20793715      4.31243442
    C      4.98089685     -0.72058476      3.75711491
    H      3.31692756      1.01299380      0.59895840
    C      5.16319305      0.51192275      1.65279213
    H     -5.15488879     -0.20988128      1.17367604
    C     -6.26590134     -0.93663365     -0.55167149
    H     -2.82134065     -2.01660556     -2.00118875
    C     -4.94255238     -1.93691646     -2.35122222
    H      5.43639539     -1.19059989      4.63316278
    C      5.78270413     -0.09533796      2.78637162
    N      6.22169382      1.03018040      0.91933722
    H     -7.23954589     -0.64613152     -0.14633854
    C     -6.18638465     -1.55073559     -1.81025676
    C     -4.86375997     -2.60821936     -3.70321267
    N      7.16410640      0.05227539      2.72476745
    H      6.15660814      1.53739455      0.04128103
    C      7.39271796      0.73045481      1.60766565
    H     -7.10138439     -1.73496543     -2.38428449
    H     -5.45131789     -3.54248598     -3.71813157
    H     -5.27117175     -1.95635929     -4.49603743
    H     -3.82541675     -2.85889945     -3.97184782
    C      8.73500095      1.14846696      1.10683811
    H      9.49789943      0.79728133      1.81519928
    H      8.81396057      2.24686856      1.02383622
    H      8.95154998      0.71579554      0.11376008
    C     -0.60646334      3.07049880     -3.01324292
    C     -0.08625352      1.64800277     -2.86367432
    O      0.54424668      1.53943442     -1.58121558
    C     -1.18799234      0.57450593     -3.00356750
    C     -1.84308634      0.55224611     -4.37627663
    O     -0.63521105     -0.72475339     -2.75175991
    H      0.19263033      3.79008583     -2.80547665
    H     -1.40723386      3.27054496     -2.29415105
    H     -0.98015674      3.25781142     -4.02277015
    H      0.70471580      1.47027576     -3.60098135
    H     -0.12817629      1.24741289     -0.94115092
    H     -1.95539453      0.72866613     -2.23655869
    H     -1.09369529      0.41712740     -5.16411861
    H     -2.39614535      1.47422096     -4.57235849
    H     -2.53799992     -0.29105184     -4.45410784
    H      0.28806956     -0.72137139     -3.06121504
