64
Energy:    -56.45293260
    H      4.93302092     -0.29126266     -0.78967016
    O      5.45250410      0.49737111     -1.14277780
    S      4.89832898      1.81864783     -0.33681456
    C      3.12175983      1.59776185     -0.53852340
    O      5.34410581      2.99582426     -1.09950366
    O      5.20501167      1.68190257      1.10239407
    C      2.59133344      0.29956621     -0.43539763
    C      2.25723103      2.67839733     -0.68562173
    N      3.24440279     -0.91381660     -0.32720999
    C      1.18556528      0.11846030     -0.49372872
    H      2.67357495      3.68663634     -0.75117968
    C      0.84328324      2.49135196     -0.74883303
    C      2.28081529     -1.83970004     -0.31921085
    N      1.02398616     -1.25741319     -0.42598431
    C      0.29736397      1.19491088     -0.59810588
    C     -0.04270046      3.66079784     -0.97563958
    C      2.50250461     -3.28134435     -0.21301521
    H      0.13923033     -1.75463842     -0.38413694
    H     -0.78671788      1.04873367     -0.60720387
    C      0.33337443      4.66935970     -1.90889178
    C     -1.25738914      3.77232448     -0.26720877
    C      3.76125334     -3.75092756      0.21605967
    C      1.48710991     -4.21157653     -0.53070012
    H      1.27910435      4.55795451     -2.44678470
    C     -0.46652847      5.78710252     -2.15865236
    H     -1.53594576      3.02408807      0.48144969
    C     -2.04888548      4.89549858     -0.52107192
    H      4.54489957     -3.02738070      0.46043138
    C      3.98594356     -5.12695092      0.32362832
    H      0.51802945     -3.86575257     -0.90738283
    C      1.70460056     -5.59534883     -0.42888648
    H     -0.16503996      6.55205873     -2.87962370
    C     -1.67911273      5.90723784     -1.45766883
    N     -3.26880399      5.32414954     -0.01606877
    H      4.96199037     -5.49018315      0.65838941
    C      2.96946007     -6.04051963      0.00797895
    C      0.61639455     -6.58457377     -0.77813666
    N     -2.65058641      6.90082332     -1.51136968
    H     -3.83387339      4.84868331      0.68186636
    C     -3.57835344      6.52870874     -0.63908183
    H      3.15693425     -7.11613315      0.10061795
    H      0.94138315     -7.26514499     -1.58405614
    H      0.35538360     -7.21320930      0.09144235
    H     -0.30074214     -6.07649571     -1.11559627
    C     -4.82692837      7.28416626     -0.32662292
    H     -4.84864423      8.19426760     -0.94173671
    H     -4.86799443      7.57959478      0.73669527
    H     -5.72975670      6.68776848     -0.54913739
    C     -2.44327746     -3.91239335      1.21517054
    C     -1.74881410     -2.56147165      1.11917474
    O     -1.50873602     -2.28423763     -0.26629334
    C     -2.55740949     -1.40990119      1.75624065
    C     -2.77159586     -1.57422076      3.25327013
    O     -1.88348464     -0.16315140      1.53603785
    H     -1.87733997     -4.66961716      0.66213361
    H     -3.44031773     -3.87121895      0.76510346
    H     -2.53466840     -4.24464015      2.25205904
    H     -0.75960779     -2.62671076      1.58613913
    H     -2.27615846     -1.79478030     -0.61068603
    H     -3.52894447     -1.31882935      1.25744241
    H     -1.81428766     -1.68567793      3.77449686
    H     -3.39607143     -2.44282582      3.47668793
    H     -3.25560973     -0.68404775      3.66972731
    H     -0.92555741     -0.33805243      1.53357717
