64
Energy:    -56.27538588
    H      0.72701060      4.24710268     -2.12449126
    O      0.99840039      4.31000964     -3.09345013
    S      0.15655444      3.14380671     -3.88951867
    C      0.48937491      1.72550740     -2.82964480
    O      0.81845184      2.95971127     -5.19111641
    O     -1.28969417      3.43565603     -3.80428982
    C      0.49711324      1.91645060     -1.43652607
    C      0.63155105      0.43976206     -3.34293405
    N      0.41553573      3.08730355     -0.70649148
    C      0.65995246      0.79440577     -0.58395069
    H      0.61076931      0.29483747     -4.42587033
    C      0.80014258     -0.68622458     -2.48156248
    C      0.52560595      2.71964288      0.57356133
    N      0.68267398      1.34413329      0.68923759
    C      0.76140412     -0.51093531     -1.07825246
    C      1.01803076     -2.03281420     -3.06742349
    C      0.48811345      3.63248558      1.71552215
    H      0.72901544      0.82822394      1.56300358
    H      0.85161177     -1.37398985     -0.41215680
    C      1.86422366     -2.18745610     -4.20304335
    C      0.38741838     -3.15908673     -2.49854810
    C      0.00337798      4.94364894      1.52858856
    C      0.92631657      3.23171718      2.99795917
    H      2.34299989     -1.29861595     -4.62361620
    C      2.10218442     -3.43301588     -4.78915724
    H     -0.29646145     -3.04561122     -1.65156953
    C      0.62858847     -4.39999197     -3.09388345
    H     -0.33433316      5.25014459      0.53392751
    C     -0.03946854      5.82607294      2.61255768
    H      1.34657474      2.23151931      3.15154399
    C      0.89013236      4.11198089      4.09172354
    H      2.75598312     -3.53588215     -5.65968512
    C      1.47835241     -4.56157883     -4.22938023
    N      0.18266472     -5.68420790     -2.81296984
    H     -0.41743258      6.84225698      2.46701329
    C      0.39581887      5.41593177      3.88133272
    C      1.36806353      3.67885514      5.45873410
    N      1.53969164     -5.89871436     -4.60642542
    H     -0.44720694     -5.95389167     -2.06262501
    C      0.75451691     -6.53881128     -3.74975537
    H      0.35301156      6.11568752      4.72346241
    H      2.18828141      4.32508564      5.81640682
    H      0.55566162      3.74387982      6.20388639
    H      1.73640923      2.64087534      5.44971320
    C      0.48345385     -8.00639533     -3.75256147
    H      1.04511642     -8.46455515     -4.57824042
    H     -0.58998168     -8.22125450     -3.89810075
    H      0.80005330     -8.48040067     -2.80631323
    C     -3.80783586     -0.50453320      2.14988082
    C     -2.34844283     -0.93655304      2.14602802
    O     -1.92899245     -1.06813826      0.78192952
    C     -1.41710628      0.04331249      2.89320255
    C     -1.72944630      0.16574362      4.37692366
    O     -0.05432301     -0.38272703      2.75769948
    H     -4.40390169     -1.17729219      1.52408224
    H     -3.91832168      0.49995614      1.72900192
    H     -4.22768176     -0.51555705      3.15858588
    H     -2.26424806     -1.93839231      2.58199857
    H     -1.56561631     -0.21152248      0.49683448
    H     -1.47034342      1.03373845      2.42715940
    H     -1.70048992     -0.81529455      4.86402184
    H     -2.71277592      0.61208558      4.54485728
    H     -0.97775824      0.78757165      4.87533009
    H     -0.04834485     -1.35565909      2.71784388
