64
Energy:    -59.76437075
    H      3.33471400      0.23391065      3.48208924
    O      3.08464778      0.35390337      4.45139808
    S      1.75929190     -0.58367286      4.70993548
    C      0.72866394     -0.07471636      3.32269207
    O      1.15779332     -0.12506652      5.97248674
    O      2.11353397     -2.00387648      4.50595207
    C      1.34163844      0.14229160      2.07590868
    C     -0.65700047      0.00479077      3.42483790
    N      2.68321092      0.15716525      1.74354736
    C      0.53416550      0.44779619      0.95027979
    H     -1.12964858     -0.17853943      4.39291838
    C     -1.46569294      0.31737048      2.29058026
    C      2.72683102      0.46552404      0.44399468
    N      1.45032329      0.65660676     -0.06990551
    C     -0.86280822      0.49020449      1.02244604
    C     -2.93430659      0.46147149      2.45312522
    C      3.94941274      0.59004584     -0.34881694
    H      1.22938082      0.84215534     -1.04383217
    H     -1.47947941      0.69212680      0.14174857
    C     -3.46281247      1.12706704      3.59647692
    C     -3.80600989     -0.06026791      1.47450254
    C      5.15414681      0.06515327      0.16320416
    C      3.95085011      1.22349258     -1.61215584
    H     -2.76541897      1.52445971      4.33935400
    C     -4.83621715      1.28962552      3.79372886
    H     -3.41175904     -0.60880960      0.61333514
    C     -5.17796281      0.10399789      1.68233642
    H      5.14883188     -0.42395696      1.14202076
    C      6.33003885      0.17596705     -0.58545812
    H      3.03348111      1.67546292     -2.00554867
    C      5.12749313      1.34240911     -2.36969401
    H     -5.22663664      1.80471604      4.67583281
    C     -5.71315376      0.77323352      2.82393894
    N     -6.29544260     -0.27692073      0.95219196
    H      7.26361080     -0.23319430     -0.18834301
    C      6.31843817      0.80457870     -1.83932965
    C      5.12301498      2.02841146     -3.71658477
    N     -7.10258746      0.79425669      2.77018924
    H     -6.29707361     -0.78169865      0.07032939
    C     -7.41776439      0.15708644      1.65001757
    H      7.24581150      0.88107226     -2.41794908
    H      5.81920838      2.88483587     -3.72895362
    H      5.44416011      1.33800984     -4.51639000
    H      4.12115985      2.40484701     -3.97686265
    C     -8.80351841     -0.09174132      1.15498572
    H     -9.51438188      0.34383185      1.87057647
    H     -9.01526075     -1.17187580      1.06507079
    H     -8.97162389      0.37136498      0.16626174
    C      0.21379294     -3.09868075     -3.03774287
    C     -0.12964634     -1.62486777     -2.87523511
    O     -0.73525709     -1.45043650     -1.58805706
    C      1.09309069     -0.69149046     -3.01493101
    C      1.73844294     -0.73835703     -4.39162924
    O      0.70297599      0.66316852     -2.75081257
    H     -0.66533023     -3.71786912     -2.82972552
    H      0.98845168     -3.39948617     -2.32516661
    H      0.55647356     -3.32225742     -4.05088721
    H     -0.89737750     -1.34726618     -3.60623937
    H     -0.02890273     -1.24668565     -0.95035719
    H      1.84044434     -0.94307072     -2.25391597
    H      1.00654842     -0.50770049     -5.17372065
    H      2.17479092     -1.71896253     -4.59747699
    H      2.52984163      0.01525890     -4.46821354
    H     -0.21563261      0.77379748     -3.05435907
