64
Energy:    -59.76198831
    H     -4.21382693      1.39968045      1.89321006
    O     -4.46831028      1.18272333      2.84434561
    S     -3.10910047      1.38237087      3.74720139
    C     -1.92973183      0.43561169      2.76821636
    O     -3.35115278      0.70290002      5.03012229
    O     -2.69171532      2.79934407      3.70190710
    C     -1.99643825      0.52567881      1.36652554
    C     -0.89850719     -0.29013341      3.35702091
    N     -2.93776259      1.14571477      0.56654686
    C     -1.01589467     -0.13425378      0.58204528
    H     -0.84292107     -0.34544099      4.44699213
    C      0.08352524     -0.95693821      2.56379102
    C     -2.56687032      0.88520235     -0.69059164
    N     -1.41557546      0.10835094     -0.72375838
    C      0.05291124     -0.83290925      1.15482488
    C      1.12799279     -1.77841702      3.22581226
    C     -3.26943577      1.34889310     -1.88648238
    H     -0.91503215     -0.16694109     -1.56366772
    H      0.82411219     -1.30941383      0.54255331
    C      0.78727716     -2.60646784      4.33388883
    C      2.45767239     -1.73920517      2.75656222
    C     -4.21776922      2.38568503     -1.76487583
    C     -3.02084533      0.78238614     -3.15713365
    H     -0.25120199     -2.62050801      4.67668459
    C      1.73319159     -3.39883618      4.98884861
    H      2.73783066     -1.07574851      1.93237924
    C      3.39729215     -2.53231077      3.42028748
    H     -4.40774026      2.82114084     -0.77916378
    C     -4.89538030      2.83965435     -2.90076847
    H     -2.31993863     -0.05316488     -3.26289424
    C     -3.69888648      1.22951003     -4.30292352
    H      1.45578622     -4.03086480      5.83704616
    C      3.06106993     -3.36674726      4.52854392
    N      4.75928301     -2.73170804      3.24086441
    H     -5.62935745      3.64521110     -2.80576381
    C     -4.63819665      2.27129837     -4.15707617
    C     -3.43367316      0.61329980     -5.65742743
    N      4.18539656     -4.04393166      4.98807404
    H      5.34563813     -2.29450102      2.53551152
    C      5.17885317     -3.64045284      4.20682133
    H     -5.17277623      2.63901020     -5.04007430
    H     -4.35674244      0.18886196     -6.08881661
    H     -3.05899812      1.36750025     -6.37176440
    H     -2.68770486     -0.19477436     -5.59652226
    C      6.60048203     -4.08152934      4.31502903
    H      6.68295431     -4.79658472      5.14509838
    H      7.27562980     -3.23132808      4.51737357
    H      6.94452926     -4.57632055      3.38922389
    C      2.43399384      2.80769086     -2.25113297
    C      2.00202420      1.34829307     -2.25779012
    O      1.87621637      0.91731974     -0.89674186
    C      0.67743276      1.10451537     -3.01398054
    C      0.75331011      1.44131300     -4.49546088
    O      0.29227093     -0.27130881     -2.88825385
    H      3.31917535      2.93806072     -1.61948403
    H      1.64906654      3.44483704     -1.83127717
    H      2.67759368      3.15941769     -3.25653108
    H      2.79912597      0.73472658     -2.69253823
    H      0.95819455      1.07721928     -0.61606400
    H     -0.12711891      1.68573523     -2.54937955
    H      1.56332445      0.88568679     -4.98094545
    H      0.91508976      2.51006123     -4.65659613
    H     -0.17458906      1.15197627     -5.00083340
    H      1.10494785     -0.80614091     -2.84663833
