64
Energy:    -66.82302779
    H      4.40699785      3.76447435     -4.30098624
    C      3.81247560      2.87013330     -4.09324270
    C      3.43788039      2.58314171     -2.77628019
    C      3.43297639      2.02429210     -5.14429456
    H      3.70556540      3.27484583     -1.97246172
    C      2.66904207      1.42725307     -2.50812334
    H      3.73423500      2.26574958     -6.16880642
    C      2.66689060      0.86244197     -4.90145340
    C      2.27175305      1.11229540     -1.14769947
    C      2.28834949      0.58270389     -3.57912279
    C      2.27256240     -0.04702549     -6.04136358
    N      1.19236891      0.37467133     -0.76744873
    N      2.90414944      1.49586991     -0.00816869
    H      1.72331454     -0.33364143     -3.37697489
    H      3.16342567     -0.42782478     -6.56885246
    H      1.66239625      0.49392197     -6.78360486
    H      1.69258434     -0.91327069     -5.68839233
    H      0.49116683      0.03122474     -1.42050698
    C      1.11746994      0.29074642      0.62544852
    H      3.79264697      1.99061503      0.00771834
    C      2.22974947      1.01735704      1.11826113
    C      0.21340410     -0.32824840      1.48916859
    C      2.47393661      1.14053567      2.48467858
    H     -0.64730681     -0.88950882      1.11228071
    C      0.43074406     -0.21703633      2.88108174
    H      3.34175379      1.65564804      2.91089047
    C      1.54736089      0.56621130      3.36221374
    C     -0.53265558     -0.93586667      3.75877935
    S      1.89613023      0.90564604      5.15598101
    C     -1.20006166     -0.27116239      4.82508717
    C     -0.82905934     -2.28203872      3.45325092
    O      0.85998290      1.94430747      5.48692230
    O      1.71361253     -0.42580428      5.81142616
    O      3.30336393      1.42685491      5.12304732
    H     -0.91572291      0.75816803      5.05807718
    C     -2.15904111     -0.92153288      5.60197946
    H     -0.28629525     -2.80877426      2.66086098
    C     -1.77639840     -2.92482967      4.25435172
    H     -2.66572687     -0.40214223      6.42000935
    C     -2.46304219     -2.26518939      5.31336117
    N     -2.27831121     -4.22102232      4.27306408
    N     -3.37518013     -3.12786532      5.91473346
    H     -1.98740190     -4.98924948      3.67606341
    C     -3.19276910     -4.29607449      5.31701567
    C     -3.86841895     -5.57482845      5.68854573
    H     -4.54113363     -5.38059002      6.53570356
    H     -3.13897007     -6.34716426      5.99041778
    H     -4.46547638     -5.98010613      4.85114593
    C     -2.44863016      2.55542064     -4.50953502
    C     -1.89518373      1.16981945     -4.20905140
    O     -0.84877795      0.89719319     -5.14965114
    C     -1.36139024      1.02238321     -2.76713564
    C     -2.43353652      1.19636749     -1.70214465
    O     -0.77040893     -0.27343972     -2.59792273
    H     -2.71812584      2.63451547     -5.56813745
    H     -1.69592134      3.32639143     -4.31619990
    H     -3.33903715      2.77051279     -3.91389355
    H     -2.67042869      0.41906797     -4.39933662
    H     -0.01003646      1.20026011     -4.76006785
    H     -0.55599486      1.74516323     -2.59421559
    H     -3.26069107      0.49604912     -1.86310591
    H     -2.83161924      2.21413274     -1.69550803
    H     -2.02458527      0.97853568     -0.70946032
    H     -1.26095070     -0.90068497     -3.15841641
